 Gaussian 09, Revision D.01,

 ---------------------------------------
 #p opt b3lyp/6-31g(d) geom=connectivity
 ---------------------------------------

 --------
 triazole
 --------
 Symbolic Z-matrix:
 Charge =  0 Multiplicity = 1

 SCF Done:  E(RB3LYP) =  -242.106834821     A.U. after   17 cycles
 SCF Done:  E(RB3LYP) =  -242.161684818     A.U. after   15 cycles
 SCF Done:  E(RB3LYP) =  -242.206749858     A.U. after   15 cycles
 SCF Done:  E(RB3LYP) =  -242.219432082     A.U. after   13 cycles
 SCF Done:  E(RB3LYP) =  -242.221523660     A.U. after   13 cycles
 SCF Done:  E(RB3LYP) =  -242.222204991     A.U. after   12 cycles
 SCF Done:  E(RB3LYP) =  -242.222310753     A.U. after   10 cycles
 SCF Done:  E(RB3LYP) =  -242.222063036     A.U. after   11 cycles
 SCF Done:  E(RB3LYP) =  -242.222314719     A.U. after    7 cycles
 SCF Done:  E(RB3LYP) =  -242.222317911     A.U. after    9 cycles
 SCF Done:  E(RB3LYP) =  -242.222316211     A.U. after    9 cycles
 SCF Done:  E(RB3LYP) =  -242.222319432     A.U. after    9 cycles
 Optimization completed.
    -- Stationary point found.
 Normal termination of Gaussian 09 at Tue Jul 21 14:56:52 2020.
 Gaussian 09:  EM64M-G09RevD.01 24-Apr-2013

 -----------------------------------------------------
 #p M062X/6-311+(2df,2p) Pop=CM5 geom=check guess=read
 -----------------------------------------------------

 --------
 triazole
 --------
 Structure from the checkpoint file:  "triazole.chk"
 Charge =  0 Multiplicity = 1

                         Standard orientation:
 ---------------------------------------------------------------------
 Center     Atomic      Atomic             Coordinates (Angstroms)
 Number     Number       Type             X           Y           Z
 ---------------------------------------------------------------------
      1          6           0        0.138523    1.133809   -0.000011
      2          6           0       -1.059868    0.457472    0.000000
      3          1           0        0.399598    2.180732   -0.000049
      4          1           0       -2.067828    0.845106   -0.000023
      5          7           0       -0.809259   -0.884827    0.000016
      6          7           0        0.480279   -1.080465   -0.000036
      7          7           0        1.061333    0.139765    0.000056
      8          1           0        2.069826    0.205166   -0.000109
 ---------------------------------------------------------------------

 SCF Done:  E(RM062X) =  -242.209213296     A.U. after   12 cycles

 The electronic state is 1-A.
 Alpha  occ. eigenvalues --  -14.84800 -14.81996 -14.77838 -10.59919 -10.57168
 Alpha  occ. eigenvalues --   -1.21921  -1.01440  -0.91101  -0.73930  -0.71171
 Alpha  occ. eigenvalues --   -0.65261  -0.55351  -0.53718  -0.52141  -0.41540
 Alpha  occ. eigenvalues --   -0.37338  -0.35060  -0.32858
 Alpha virt. eigenvalues --    0.00079   0.02119   0.02870   0.03814   0.06032
 Alpha virt. eigenvalues --    0.06297   0.06836   0.07662   0.09580   0.11384
 Alpha virt. eigenvalues --    0.13224   0.13760   0.14715   0.17462   0.19246

 Mulliken charges:
               1
     1  C   -0.202040
     2  C   -0.103715
     3  H    0.149524
     4  H    0.144962
     5  N   -0.152476
     6  N   -0.108753
     7  N    0.033679
     8  H    0.238819
 Sum of Mulliken charges =   0.00000

 Dipole moment (field-independent basis, Debye):
    X=              2.0684    Y=              3.9848    Z=             -0.0003  Tot=              4.4897
 Quadrupole moment (field-independent basis, Debye-Ang):
   XX=            -23.2623   YY=            -30.6376   ZZ=            -30.7698
   XY=             -0.2331   XZ=             -0.0004   YZ=             -0.0002

 Normal termination of Gaussian 09 at Tue Jul 21 14:57:19 2020.
